Created on Mon Oct 26 18:42:02 2015 

         100 atoms
         120 bonds
         216 angles
         384 dihedrals
          64 impropers

          13 atom types
          15 bond types
          27 angle types
          44 dihedral types
           8 improper types
           0.000000  19.300000 xlo xhi
           0.000000  19.307800 ylo yhi
           0.000000   6.924960 zlo zhi
           0.000000  -0.895340   0.000000 xy xz yz

Masses

    1  12.0107 # C_a
    2  12.0107 # C_f
    3  12.0107 # C_b
    4  12.0107 # C_c
    5  12.0107 # C_e
    6  12.0107 # C_d
    7  14.0067 # N_a
    8  14.0067 # N_b
    9   1.0079 # H_a
   10   1.0079 # H_d
   11   1.0079 # H_c
   12   1.0079 # H_b
   13  58.9332 # Co_a

Bond Coeffs

    1 harmonic        1.000000        2.010000 # C_a C_b
   13 harmonic        1.100000        2.010000 # N_a N_b

Angle Coeffs

    8 harmonic        1.000000      180.000000 # C_a C_b C_c
   20 harmonic        1.100000       90.000000 # C_a N_a Co_a

Dihedral Coeffs

   39 opls        0.000000        7.250000        0.000000        0.000000 # Co_a N_a N_b C_f

Improper Coeffs

    8 harmonic        4.000000      180.000000 # C_f N_b N_a Co_a

Atoms

       1      444        1     0.00000    6.79481    2.02906    4.49423
       2      444        1     0.00000    1.95986    7.62484    2.43059
       3      444        2     0.00000    7.34584    2.61543    2.44610
       4      444        2     0.00000    1.40884    7.03847    4.47872
       5      444        3     0.00000    6.51729    2.89926    3.48658
       6      444        3     0.00000    2.23739    6.75464    3.43824
       7      444        4     0.00000    5.47959    3.98204    3.51739
       8      444        4     0.00000    3.27508    5.67186    3.40750
       9      444        5     0.00000    3.55594    4.97099    4.57442
      10      444        5     0.00000    5.19874    4.68291    2.35040
      11      444        6     0.00000    4.65820    4.12588    4.62940
      12      444        6     0.00000    4.09647    5.52802    2.29549
      13      444        7     0.00000    7.79471    1.20751    4.07652
      14      444        7     0.00000    0.95977    8.44639    2.84831
      15      444        8     0.00000    8.13535    1.56972    2.81070
      16      444        8     0.00000    0.61932    8.08418    4.11412
      17      444        9     0.00000    6.36550    2.00029    5.34122
      18      444        9     0.00000    2.38917    7.65361    1.58360
      19      444       10     0.00000    7.36887    3.06801    1.61116
      20      444       10     0.00000    1.38581    6.58589    5.31366
      21      444       11     0.00000    2.99448    5.06926    5.33444
      22      444       11     0.00000    5.76020    4.58464    1.59039
      23      444       12     0.00000    4.85018    3.64686    5.42695
      24      444       12     0.00000    3.90449    6.00704    1.49794
      25      444        1     0.00000    7.24248   17.27874    1.03175
      26      444        1     0.00000    1.51219   11.68296    5.89307
      27      444        2     0.00000    6.89817   16.69237    5.90858
      28      444        2     0.00000    1.85651   12.26933    1.01624
      29      444        3     0.00000    6.96496   16.40854    0.02410
      30      444        3     0.00000    1.78972   12.55316    6.90072
      31      444        4     0.00000    5.92726   15.32576    0.05491
      32      444        4     0.00000    2.82741   13.63594    6.86998
      33      444        5     0.00000    4.00361   14.33681    1.11194
      34      444        5     0.00000    4.75107   14.62489    5.81288
      35      444        6     0.00000    5.10587   15.18192    1.16692
      36      444        6     0.00000    3.64880   13.77978    5.75797
      37      444        7     0.00000    8.24238   18.10029    0.61404
      38      444        7     0.00000    0.51210   10.86141    6.31079
      39      444        8     0.00000    7.68768   17.73808    6.27318
      40      444        8     0.00000    1.06699   11.22362    0.65164
      41      444        9     0.00000    6.81317   17.30751    1.87874
      42      444        9     0.00000    1.94150   11.65419    5.04608
      43      444       10     0.00000    6.92120   16.23979    5.07364
      44      444       10     0.00000    1.83348   12.72191    1.85118
      45      444       11     0.00000    3.44215   14.23854    1.87196
      46      444       11     0.00000    5.31253   14.72316    5.05287
      47      444       12     0.00000    5.29785   15.66094    1.96447
      48      444       12     0.00000    3.45682   13.30076    4.96042
      49      444        1     0.00000   16.44481   11.68296    4.49423
      50      444        1     0.00000   11.60986   17.27874    2.43059
      51      444        2     0.00000   16.99584   12.26933    2.44610
      52      444        2     0.00000   11.05884   16.69237    4.47872
      53      444        3     0.00000   16.16729   12.55316    3.48658
      54      444        3     0.00000   11.88739   16.40854    3.43824
      55      444        4     0.00000   15.12959   13.63594    3.51739
      56      444        4     0.00000   12.92508   15.32576    3.40750
      57      444        5     0.00000   13.20594   14.62489    4.57442
      58      444        5     0.00000   14.84874   14.33681    2.35040
      59      444        6     0.00000   14.30820   13.77978    4.62940
      60      444        6     0.00000   13.74647   15.18192    2.29549
      61      444        7     0.00000   17.44471   10.86141    4.07652
      62      444        7     0.00000   10.60977   18.10029    2.84831
      63      444        8     0.00000   17.78535   11.22362    2.81070
      64      444        8     0.00000   10.26932   17.73808    4.11412
      65      444        9     0.00000   16.01550   11.65419    5.34122
      66      444        9     0.00000   12.03917   17.30751    1.58360
      67      444       10     0.00000   17.01887   12.72191    1.61116
      68      444       10     0.00000   11.03581   16.23979    5.31366
      69      444       11     0.00000   12.64448   14.72316    5.33444
      70      444       11     0.00000   15.41020   14.23854    1.59039
      71      444       12     0.00000   14.50018   13.30076    5.42695
      72      444       12     0.00000   13.55449   15.66094    1.49794
      73      444        1     0.00000   16.89248    7.62484    1.03175
      74      444        1     0.00000   11.16219    2.02906    5.89307
      75      444        2     0.00000   16.54817    7.03847    5.90858
      76      444        2     0.00000   11.50651    2.61543    1.01624
      77      444        3     0.00000   16.61496    6.75464    0.02410
      78      444        3     0.00000   11.43972    2.89926    6.90072
      79      444        4     0.00000   15.57726    5.67186    0.05491
      80      444        4     0.00000   12.47741    3.98204    6.86998
      81      444        5     0.00000   13.65361    4.68291    1.11194
      82      444        5     0.00000   14.40107    4.97099    5.81288
      83      444        6     0.00000   14.75587    5.52802    1.16692
      84      444        6     0.00000   13.29880    4.12588    5.75797
      85      444        7     0.00000   17.89238    8.44639    0.61404
      86      444        7     0.00000   10.16210    1.20751    6.31079
      87      444        8     0.00000   17.33768    8.08418    6.27318
      88      444        8     0.00000   10.71699    1.56972    0.65164
      89      444        9     0.00000   16.46317    7.65361    1.87874
      90      444        9     0.00000   11.59150    2.00029    5.04608
      91      444       10     0.00000   16.57120    6.58589    5.07364
      92      444       10     0.00000   11.48348    3.06801    1.85118
      93      444       11     0.00000   13.09215    4.58464    1.87196
      94      444       11     0.00000   14.96253    5.06926    5.05287
      95      444       12     0.00000   14.94785    6.00704    1.96447
      96      444       12     0.00000   13.10682    3.64686    4.96042
      97      444       13     0.00000   18.62850    9.36139    5.19372
      98      444       13     0.00000   19.07617    9.94641    1.73124
      99      444       13     0.00000    8.97850   19.01529    5.19372
     100      444       13     0.00000    9.42617    0.29251    1.73124

Bonds

       1        1        1        5
       2        2        1       13
       3        3        1       17
       4        1        2        6
       5        2        2       14
       6        3        2       18
       7        4        3        5
       8        5        3       15
       9        6        3       19
      10        4        4        6
      11        5        4       16
      12        6        4       20
      13        7        5        7
      14        7        6        8
      15        8        7       10
      16        9        7       11
      17        8        8        9
      18        9        8       12
      19       10        9       11
      20       11        9       21
      21       10       10       12
      22       11       10       22
      23       12       11       23
      24       12       12       24
      25       13       13       15
      26       14       13       99
      27       13       14       16
      28       14       14       98
      29       15       15      100
      30       15       16       97
      31        1       25       29
      32        2       25       37
      33        3       25       41
      34        1       26       30
      35        2       26       38
      36        3       26       42
      37        4       27       29
      38        5       27       39
      39        6       27       43
      40        4       28       30
      41        5       28       40
      42        6       28       44
      43        7       29       31
      44        7       30       32
      45        8       31       34
      46        9       31       35
      47        8       32       33
      48        9       32       36
      49       10       33       35
      50       11       33       45
      51       10       34       36
      52       11       34       46
      53       12       35       47
      54       12       36       48
      55       13       37       39
      56       14       37      100
      57       13       38       40
      58       14       38       97
      59       15       39       99
      60       15       40       98
      61        1       49       53
      62        2       49       61
      63        3       49       65
      64        1       50       54
      65        2       50       62
      66        3       50       66
      67        4       51       53
      68        5       51       63
      69        6       51       67
      70        4       52       54
      71        5       52       64
      72        6       52       68
      73        7       53       55
      74        7       54       56
      75        8       55       58
      76        9       55       59
      77        8       56       57
      78        9       56       60
      79       10       57       59
      80       11       57       69
      81       10       58       60
      82       11       58       70
      83       12       59       71
      84       12       60       72
      85       13       61       63
      86       14       61       97
      87       13       62       64
      88       14       62      100
      89       15       63       98
      90       15       64       99
      91        1       73       77
      92        2       73       85
      93        3       73       89
      94        1       74       78
      95        2       74       86
      96        3       74       90
      97        4       75       77
      98        5       75       87
      99        6       75       91
     100        4       76       78
     101        5       76       88
     102        6       76       92
     103        7       77       79
     104        7       78       80
     105        8       79       82
     106        9       79       83
     107        8       80       81
     108        9       80       84
     109       10       81       83
     110       11       81       93
     111       10       82       84
     112       11       82       94
     113       12       83       95
     114       12       84       96
     115       13       85       87
     116       14       85       98
     117       13       86       88
     118       14       86       99
     119       15       87       97
     120       15       88      100

Angles

       1        1       13        1        5
       2        2       17        1        5
       3        3       17        1       13
       4        1       14        2        6
       5        2       18        2        6
       6        3       18        2       14
       7        4       15        3        5
       8        5       19        3        5
       9        6       19        3       15
      10        4       16        4        6
      11        5       20        4        6
      12        6       20        4       16
      13        7        3        5        1
      14        8        1        5        7
      15        9        3        5        7
      16        7        4        6        2
      17        8        2        6        8
      18        9        4        6        8
      19       10        5        7       10
      20       11        5        7       11
      21       12       11        7       10
      22       10        6        8        9
      23       11        6        8       12
      24       12       12        8        9
      25       13        8        9       11
      26       14        8        9       21
      27       15       21        9       11
      28       13        7       10       12
      29       14        7       10       22
      30       15       22       10       12
      31       16        9       11        7
      32       17        7       11       23
      33       18        9       11       23
      34       16       10       12        8
      35       17        8       12       24
      36       18       10       12       24
      37       19        1       13       15
      38       20        1       13       99
      39       21       99       13       15
      40       19        2       14       16
      41       20        2       14       98
      42       21       98       14       16
      43       22       13       15        3
      44       23        3       15      100
      45       24       13       15      100
      46       22       14       16        4
      47       23        4       16       97
      48       24       14       16       97
      49        1       37       25       29
      50        2       41       25       29
      51        3       41       25       37
      52        1       38       26       30
      53        2       42       26       30
      54        3       42       26       38
      55        4       39       27       29
      56        5       43       27       29
      57        6       43       27       39
      58        4       40       28       30
      59        5       44       28       30
      60        6       44       28       40
      61        7       27       29       25
      62        8       25       29       31
      63        9       27       29       31
      64        7       28       30       26
      65        8       26       30       32
      66        9       28       30       32
      67       10       29       31       34
      68       11       29       31       35
      69       12       35       31       34
      70       10       30       32       33
      71       11       30       32       36
      72       12       36       32       33
      73       13       32       33       35
      74       14       32       33       45
      75       15       45       33       35
      76       13       31       34       36
      77       14       31       34       46
      78       15       46       34       36
      79       16       33       35       31
      80       17       31       35       47
      81       18       33       35       47
      82       16       34       36       32
      83       17       32       36       48
      84       18       34       36       48
      85       19       25       37       39
      86       20       25       37      100
      87       21      100       37       39
      88       19       26       38       40
      89       20       26       38       97
      90       21       97       38       40
      91       22       37       39       27
      92       23       27       39       99
      93       24       37       39       99
      94       22       38       40       28
      95       23       28       40       98
      96       24       38       40       98
      97        1       61       49       53
      98        2       65       49       53
      99        3       65       49       61
     100        1       62       50       54
     101        2       66       50       54
     102        3       66       50       62
     103        4       63       51       53
     104        5       67       51       53
     105        6       67       51       63
     106        4       64       52       54
     107        5       68       52       54
     108        6       68       52       64
     109        7       51       53       49
     110        8       49       53       55
     111        9       51       53       55
     112        7       52       54       50
     113        8       50       54       56
     114        9       52       54       56
     115       10       53       55       58
     116       11       53       55       59
     117       12       59       55       58
     118       10       54       56       57
     119       11       54       56       60
     120       12       60       56       57
     121       13       56       57       59
     122       14       56       57       69
     123       15       69       57       59
     124       13       55       58       60
     125       14       55       58       70
     126       15       70       58       60
     127       16       57       59       55
     128       17       55       59       71
     129       18       57       59       71
     130       16       58       60       56
     131       17       56       60       72
     132       18       58       60       72
     133       19       49       61       63
     134       20       49       61       97
     135       21       97       61       63
     136       19       50       62       64
     137       20       50       62      100
     138       21      100       62       64
     139       22       61       63       51
     140       23       51       63       98
     141       24       61       63       98
     142       22       62       64       52
     143       23       52       64       99
     144       24       62       64       99
     145        1       85       73       77
     146        2       89       73       77
     147        3       89       73       85
     148        1       86       74       78
     149        2       90       74       78
     150        3       90       74       86
     151        4       87       75       77
     152        5       91       75       77
     153        6       91       75       87
     154        4       88       76       78
     155        5       92       76       78
     156        6       92       76       88
     157        7       75       77       73
     158        8       73       77       79
     159        9       75       77       79
     160        7       76       78       74
     161        8       74       78       80
     162        9       76       78       80
     163       10       77       79       82
     164       11       77       79       83
     165       12       83       79       82
     166       10       78       80       81
     167       11       78       80       84
     168       12       84       80       81
     169       13       80       81       83
     170       14       80       81       93
     171       15       93       81       83
     172       13       79       82       84
     173       14       79       82       94
     174       15       94       82       84
     175       16       81       83       79
     176       17       79       83       95
     177       18       81       83       95
     178       16       82       84       80
     179       17       80       84       96
     180       18       82       84       96
     181       19       73       85       87
     182       20       73       85       98
     183       21       98       85       87
     184       19       74       86       88
     185       20       74       86       99
     186       21       99       86       88
     187       22       85       87       75
     188       23       75       87       97
     189       24       85       87       97
     190       22       86       88       76
     191       23       76       88      100
     192       24       86       88      100
     193       25       38       97       16
     194       25       61       97       16
     195       26       87       97       16
     196       27       61       97       38
     197       25       87       97       38
     198       25       87       97       61
     199       25       40       98       14
     200       25       63       98       14
     201       27       85       98       14
     202       26       63       98       40
     203       25       85       98       40
     204       25       85       98       63
     205       25       39       99       13
     206       25       64       99       13
     207       27       86       99       13
     208       26       64       99       39
     209       25       86       99       39
     210       25       86       99       64
     211       25       37      100       15
     212       25       62      100       15
     213       26       88      100       15
     214       27       62      100       37
     215       25       88      100       37
     216       25       88      100       62

Dihedrals

       1        1        5        1       13       15
       2        2        5        1       13       99
       3        3       13        1        5        3
       4        4       13        1        5        7
       5        5       17        1        5        3
       6        6       17        1        5        7
       7        7       17        1       13       15
       8        8       17        1       13       99
       9        1        6        2       14       16
      10        2        6        2       14       98
      11        3       14        2        6        4
      12        4       14        2        6        8
      13        5       18        2        6        4
      14        6       18        2        6        8
      15        7       18        2       14       16
      16        8       18        2       14       98
      17        9        5        3       15       13
      18       10        5        3       15      100
      19       11       15        3        5        1
      20       12       15        3        5        7
      21       13       19        3        5        1
      22       14       19        3        5        7
      23       15       19        3       15       13
      24       16       19        3       15      100
      25        9        6        4       16       14
      26       10        6        4       16       97
      27       11       16        4        6        2
      28       12       16        4        6        8
      29       13       20        4        6        2
      30       14       20        4        6        8
      31       15       20        4       16       14
      32       16       20        4       16       97
      33       17        1        5        7       10
      34       18        1        5        7       11
      35       19        3        5        7       10
      36       20        3        5        7       11
      37       17        2        6        8        9
      38       18        2        6        8       12
      39       19        4        6        8        9
      40       20        4        6        8       12
      41       21        5        7       10       12
      42       22        5        7       10       22
      43       23        5        7       11        9
      44       24        5        7       11       23
      45       25       10        7       11        9
      46       26       10        7       11       23
      47       27       11        7       10       12
      48       28       11        7       10       22
      49       21        6        8        9       11
      50       22        6        8        9       21
      51       23        6        8       12       10
      52       24        6        8       12       24
      53       25        9        8       12       10
      54       26        9        8       12       24
      55       27       12        8        9       11
      56       28       12        8        9       21
      57       29        8        9       11        7
      58       30        8        9       11       23
      59       31       21        9       11        7
      60       32       21        9       11       23
      61       29        7       10       12        8
      62       30        7       10       12       24
      63       31       22       10       12        8
      64       32       22       10       12       24
      65       33        1       13       15        3
      66       34        1       13       15      100
      67       35        1       13       99       39
      68       35        1       13       99       64
      69       36        1       13       99       86
      70       37       15       13       99       39
      71       37       15       13       99       64
      72       38       15       13       99       86
      73       39       99       13       15        3
      74       40       99       13       15      100
      75       33        2       14       16        4
      76       34        2       14       16       97
      77       35        2       14       98       40
      78       35        2       14       98       63
      79       36        2       14       98       85
      80       37       16       14       98       40
      81       37       16       14       98       63
      82       38       16       14       98       85
      83       39       98       14       16        4
      84       40       98       14       16       97
      85       41        3       15      100       37
      86       41        3       15      100       62
      87       42        3       15      100       88
      88       43       13       15      100       37
      89       43       13       15      100       62
      90       44       13       15      100       88
      91       41        4       16       97       38
      92       41        4       16       97       61
      93       42        4       16       97       87
      94       43       14       16       97       38
      95       43       14       16       97       61
      96       44       14       16       97       87
      97        1       29       25       37       39
      98        2       29       25       37      100
      99        3       37       25       29       27
     100        4       37       25       29       31
     101        5       41       25       29       27
     102        6       41       25       29       31
     103        7       41       25       37       39
     104        8       41       25       37      100
     105        1       30       26       38       40
     106        2       30       26       38       97
     107        3       38       26       30       28
     108        4       38       26       30       32
     109        5       42       26       30       28
     110        6       42       26       30       32
     111        7       42       26       38       40
     112        8       42       26       38       97
     113        9       29       27       39       37
     114       10       29       27       39       99
     115       11       39       27       29       25
     116       12       39       27       29       31
     117       13       43       27       29       25
     118       14       43       27       29       31
     119       15       43       27       39       37
     120       16       43       27       39       99
     121        9       30       28       40       38
     122       10       30       28       40       98
     123       11       40       28       30       26
     124       12       40       28       30       32
     125       13       44       28       30       26
     126       14       44       28       30       32
     127       15       44       28       40       38
     128       16       44       28       40       98
     129       17       25       29       31       34
     130       18       25       29       31       35
     131       19       27       29       31       34
     132       20       27       29       31       35
     133       17       26       30       32       33
     134       18       26       30       32       36
     135       19       28       30       32       33
     136       20       28       30       32       36
     137       21       29       31       34       36
     138       22       29       31       34       46
     139       23       29       31       35       33