Created on Fri Sep 15 16:12:56 2017 

         424 atoms
         512 bonds
         912 angles
         960 dihedrals
         576 impropers

           5 atom types
           6 bond types
           9 angle types
           3 dihedral types
           1 improper types
           0.000000  25.832000 xlo xhi
           0.000000  25.832000 ylo yhi
           0.000000  25.832000 zlo zhi
           0.000000   0.000000   0.000000 xy xz yz

Masses

    1    15.999400000 # O_R
    2    12.010700000 # C_R
    3     1.007940000 # H_
    4    65.380000000 # Zn3+2
    5    15.999400000 # O_2

Bond Coeffs

    1      160.291409        1.840266  # O_R Zn3+2
    2      646.680887        1.311940  # O_R C_R
    3      391.669513        1.458000  # C_R C_R
    4      462.655054        1.379256  # C_R C_R
    5      357.440381        1.081418  # C_R H_
    6      172.603617        1.795426  # Zn3+2 O_2

Angle Coeffs

    1              cosine/periodic       50.430477              -1               3 # Zn3+2 O_R C_R
    2              cosine/periodic      137.761490              -1               3 # O_R C_R C_R
    3              cosine/periodic      217.450257              -1               3 # O_R C_R O_R
    4              cosine/periodic      101.626578              -1               3 # C_R C_R C_R
    5              cosine/periodic      117.010657              -1               3 # C_R C_R C_R
    6              cosine/periodic       76.817955              -1               3 # H_ C_R C_R
    7                      fourier       54.182353        0.343737        0.374972        0.281246 # O_2 Zn3+2 O_R
    8                      fourier       50.968023        0.343737        0.374972        0.281246 # O_R Zn3+2 O_R
    9              cosine/periodic       14.650522              -1               3 # Zn3+2 O_2 Zn3+2

Dihedral Coeffs

    1        2.245703              -1               2 # Zn3+2 O_R C_R C_R
    2        0.555556              -1               2 # O_R C_R C_R C_R
    3        1.497136              -1               2 # C_R C_R C_R C_R

Improper Coeffs

    1        2.000000        1.000000       -1.000000        0.000000               0 # O_R C_R C_R O_R

Pair Coeffs

    1        0.060000        3.118146 # O_R O_R
    2        0.105000        3.430851 # C_R C_R
    3        0.044000        2.571134 # H_ H_
    4        0.124000        2.461553 # Zn3+2 Zn3+2
    5        0.060000        3.118146 # O_2 O_2

Atoms

       1      444        1     0.00000    3.46149    7.28204    5.63396
       2      444        2     0.00000    2.87510    6.45800    6.45800
       3      444        2     0.00000    1.38976    6.45800    6.45800
       4      444        2     0.00000    0.69488    7.30787    5.60813
       5      444        3     0.00000    1.15727    7.87618    5.03982
       6      444        1     0.00000    3.46149   18.54996   20.19804
       7      444        2     0.00000    2.87510   19.37400   19.37400
       8      444        2     0.00000    1.38976   19.37400   19.37400
       9      444        2     0.00000    0.69488   18.52413   20.22387
      10      444        3     0.00000    1.15727   17.95582   20.79218
      11      444        1     0.00000    3.46149   20.19804   18.54996
      12      444        2     0.00000    0.69488   20.22387   18.52413
      13      444        3     0.00000    1.15727   20.79218   17.95582
      14      444        1     0.00000    3.46149    5.63396    7.28204
      15      444        2     0.00000    0.69488    5.60813    7.30787
      16      444        3     0.00000    1.15727    5.03982    7.87618
      17      444        4     0.00000    5.33689    7.57911    5.33689
      18      444        4     0.00000    5.33689   18.25289   20.49511
      19      444        4     0.00000    5.33689    5.33689    7.57911
      20      444        4     0.00000    5.33689   20.49511   18.25289
      21      444        1     0.00000    5.63396    3.46149    7.28204
      22      444        2     0.00000    6.45800    2.87510    6.45800
      23      444        2     0.00000    6.45800    1.38976    6.45800
      24      444        2     0.00000    5.60813    0.69488    7.30787
      25      444        3     0.00000    5.03982    1.15727    7.87618
      26      444        1     0.00000   20.19804    3.46149   18.54996
      27      444        2     0.00000   19.37400    2.87510   19.37400
      28      444        2     0.00000   19.37400    1.38976   19.37400
      29      444        2     0.00000   20.22387    0.69488   18.52413
      30      444        3     0.00000   20.79218    1.15727   17.95582
      31      444        1     0.00000    7.28204    3.46149    5.63396
      32      444        2     0.00000    7.30787    0.69488    5.60813
      33      444        3     0.00000    7.87618    1.15727    5.03982
      34      444        1     0.00000   18.54996    3.46149   20.19804
      35      444        2     0.00000   18.52413    0.69488   20.22387
      36      444        3     0.00000   17.95582    1.15727   20.79218
      37      444        4     0.00000    7.57911    5.33689    5.33689
      38      444        4     0.00000   18.25289    5.33689   20.49511
      39      444        4     0.00000   20.49511    5.33689   18.25289
      40      444        5     0.00000    6.45800    6.45800    6.45800
      41      444        1     0.00000    7.28204    5.63396    3.46149
      42      444        2     0.00000    6.45800    6.45800    2.87510
      43      444        2     0.00000    6.45800    6.45800    1.38976
      44      444        2     0.00000    7.30787    5.60813    0.69488
      45      444        3     0.00000    7.87618    5.03982    1.15727
      46      444        4     0.00000   18.25289   20.49511    5.33689
      47      444        5     0.00000   19.37400   19.37400    6.45800
      48      444        1     0.00000   18.54996   20.19804    3.46149
      49      444        2     0.00000   19.37400   19.37400    2.87510
      50      444        2     0.00000   19.37400   19.37400    1.38976
      51      444        2     0.00000   18.52413   20.22387    0.69488
      52      444        3     0.00000   17.95582   20.79218    1.15727
      53      444        5     0.00000   19.37400    6.45800   19.37400
      54      444        4     0.00000    7.57911   20.49511   20.49511
      55      444        5     0.00000    6.45800   19.37400   19.37400
      56      444        4     0.00000   20.49511   18.25289    5.33689
      57      444        4     0.00000   20.49511    7.57911   20.49511
      58      444        4     0.00000   20.49511   20.49511    7.57911
      59      444        4     0.00000    5.33689    7.57911   20.49511
      60      444        5     0.00000    6.45800    6.45800   19.37400
      61      444        4     0.00000   20.49511   18.25289   20.49511
      62      444        5     0.00000   19.37400   19.37400   19.37400
      63      444        4     0.00000    5.33689   18.25289    5.33689
      64      444        5     0.00000    6.45800   19.37400    6.45800
      65      444        1     0.00000    5.63396   18.54996    3.46149
      66      444        2     0.00000    6.45800   19.37400    2.87510
      67      444        2     0.00000    6.45800   19.37400    1.38976
      68      444        2     0.00000    5.60813   18.52413    0.69488
      69      444        3     0.00000    5.03982   17.95582    1.15727
      70      444        4     0.00000   20.49511    7.57911    5.33689
      71      444        5     0.00000   19.37400    6.45800    6.45800
      72      444        1     0.00000   20.19804    7.28204    3.46149
      73      444        2     0.00000   19.37400    6.45800    2.87510
      74      444        2     0.00000   19.37400    6.45800    1.38976
      75      444        2     0.00000   20.22387    7.30787    0.69488
      76      444        3     0.00000   20.79218    7.87618    1.15727
      77      444        4     0.00000    7.57911    5.33689   20.49511
      78      444        1     0.00000    7.28204    3.46149   20.19804
      79      444        2     0.00000    6.45800    2.87510   19.37400
      80      444        2     0.00000    6.45800    1.38976   19.37400
      81      444        2     0.00000    7.30787    0.69488   20.22387
      82      444        3     0.00000    7.87618    1.15727   20.79218
      83      444        4     0.00000   18.25289    5.33689    5.33689
      84      444        1     0.00000   18.54996    3.46149    5.63396
      85      444        2     0.00000   19.37400    2.87510    6.45800
      86      444        2     0.00000   19.37400    1.38976    6.45800
      87      444        2     0.00000   18.52413    0.69488    5.60813
      88      444        3     0.00000   17.95582    1.15727    5.03982
      89      444        4     0.00000   18.25289   20.49511   20.49511
      90      444        1     0.00000   18.54996   22.37051   20.19804
      91      444        2     0.00000   19.37400   22.95690   19.37400
      92      444        2     0.00000   19.37400   24.44224   19.37400
      93      444        2     0.00000   18.52413   25.13712   20.22387
      94      444        3     0.00000   17.95582   24.67473   20.79218
      95      444        4     0.00000    7.57911   20.49511    5.33689
      96      444        1     0.00000    7.28204   22.37051    5.63396
      97      444        2     0.00000    6.45800   22.95690    6.45800
      98      444        2     0.00000    6.45800   24.44224    6.45800
      99      444        2     0.00000    7.30787   25.13712    5.60813
     100      444        3     0.00000    7.87618   24.67473    5.03982
     101      444        4     0.00000    5.33689    5.33689   18.25289
     102      444        1     0.00000    3.46149    5.63396   18.54996
     103      444        2     0.00000    2.87510    6.45800   19.37400
     104      444        2     0.00000    1.38976    6.45800   19.37400
     105      444        2     0.00000    0.69488    5.60813   18.52413
     106      444        3     0.00000    1.15727    5.03982   17.95582
     107      444        4     0.00000    5.33689   20.49511    7.57911
     108      444        1     0.00000    3.46149   20.19804    7.28204
     109      444        2     0.00000    2.87510   19.37400    6.45800
     110      444        2     0.00000    1.38976   19.37400    6.45800
     111      444        2     0.00000    0.69488   20.22387    7.30787
     112      444        3     0.00000    1.15727   20.79218    7.87618
     113      444        4     0.00000   20.49511    5.33689    7.57911
     114      444        1     0.00000   22.37051    5.63396    7.28204
     115      444        2     0.00000   22.95690    6.45800    6.45800
     116      444        2     0.00000   24.44224    6.45800    6.45800
     117      444        2     0.00000   25.13712    5.60813    7.30787
     118      444        3     0.00000   24.67473    5.03982    7.87618
     119      444        4     0.00000   20.49511   20.49511   18.25289
     120      444        1     0.00000   22.37051   20.19804   18.54996
     121      444        2     0.00000   22.95690   19.37400   19.37400
     122      444        2     0.00000   24.44224   19.37400   19.37400
     123      444        2     0.00000   25.13712   20.22387   18.52413
     124      444        3     0.00000   24.67473   20.79218   17.95582
     125      444        1     0.00000    7.28204   20.19804    3.46149
     126      444        2     0.00000    7.30787   20.22387    0.69488
     127      444        3     0.00000    7.87618   20.79218    1.15727
     128      444        1     0.00000   18.54996    5.63396    3.46149
     129      444        2     0.00000   18.52413    5.60813    0.69488
     130      444        3     0.00000   17.95582    5.03982    1.15727
     131      444        1     0.00000   22.37051   18.54996   20.19804
     132      444        2     0.00000   25.13712   18.52413   20.22387
     133      444        3     0.00000   24.67473   17.95582   20.79218
     134      444        1     0.00000   22.37051    7.28204    5.63396
     135      444        2     0.00000   25.13712    7.30787    5.60813
     136      444        3     0.00000   24.67473    7.87618    5.03982
     137      444        1     0.00000    3.46149    7.28204   20.19804
     138      444        2     0.00000    0.69488    7.30787   20.22387
     139      444        3     0.00000    1.15727    7.87618   20.79218
     140      444        1     0.00000    3.46149   18.54996    5.63396
     141      444        2     0.00000    0.69488   18.52413    5.60813
     142      444        3     0.00000    1.15727   17.95582    5.03982
     143      444        1     0.00000   20.19804   22.37051   18.54996
     144      444        2     0.00000   20.22387   25.13712   18.52413
     145      444        3     0.00000   20.79218   24.67473   17.95582
     146      444        1     0.00000    5.63396   22.37051    7.28204
     147      444        2     0.00000    5.60813   25.13712    7.30787
     148      444        3     0.00000    5.03982   24.67473    7.87618
     149      444        1     0.00000   20.19804    3.46149    7.28204
     150      444        2     0.00000   20.22387    0.69488    7.30787
     151      444        3     0.00000   20.79218    1.15727    7.87618
     152      444        1     0.00000    5.63396    3.46149   18.54996
     153      444        2     0.00000    5.60813    0.69488   18.52413
     154      444        3     0.00000    5.03982    1.15727   17.95582
     155      444        1     0.00000   20.19804   18.54996    3.46149
     156      444        2     0.00000   20.22387   18.52413    0.69488
     157      444        3     0.00000   20.79218   17.95582    1.15727
     158      444        1     0.00000    5.63396    7.28204    3.46149
     159      444        2     0.00000    5.60813    7.30787    0.69488
     160      444        3     0.00000    5.03982    7.87618    1.15727
     161      444        4     0.00000    7.57911   18.25289   18.25289
     162      444        1     0.00000    7.28204   18.54996   16.37749
     163      444        2     0.00000    6.45800   19.37400   15.79110
     164      444        2     0.00000    6.45800   19.37400   14.30576
     165      444        2     0.00000    7.30787   18.52413   13.61088
     166      444        3     0.00000    7.87618   17.95582   14.07327
     167      444        4     0.00000   18.25289    7.57911   18.25289
     168      444        1     0.00000   18.54996    7.28204   16.37749
     169      444        2     0.00000   19.37400    6.45800   15.79110
     170      444        2     0.00000   19.37400    6.45800   14.30576
     171      444        2     0.00000   18.52413    7.30787   13.61088
     172      444        3     0.00000   17.95582    7.87618   14.07327
     173      444        4     0.00000   18.25289   18.25289    7.57911
     174      444        1     0.00000   18.54996   18.54996    9.45451
     175      444        2     0.00000   19.37400   19.37400   10.04090
     176      444        2     0.00000   19.37400   19.37400   11.52624
     177      444        2     0.00000   18.52413   18.52413   12.22112
     178      444        3     0.00000   17.95582   17.95582   11.75873
     179      444        4     0.00000    7.57911    7.57911    7.57911
     180      444        1     0.00000    7.28204    7.28204    9.45451
     181      444        2     0.00000    6.45800    6.45800   10.04090
     182      444        2     0.00000    6.45800    6.45800   11.52624
     183      444        2     0.00000    7.30787    7.30787   12.22112
     184      444        3     0.00000    7.87618    7.87618   11.75873
     185      444        1     0.00000    5.63396   16.37749   20.19804
     186      444        2     0.00000    6.45800   15.79110   19.37400
     187      444        2     0.00000    6.45800   14.30576   19.37400
     188      444        2     0.00000    5.60813   13.61088   20.22387
     189      444        3     0.00000    5.03982   14.07327   20.79218
     190      444        1     0.00000   20.19804   16.37749    5.63396
     191      444        2     0.00000   19.37400   15.79110    6.45800
     192      444        2     0.00000   19.37400   14.30576    6.45800
     193      444        2     0.00000   20.22387   13.61088    5.60813
     194      444        3     0.00000   20.79218   14.07327    5.03982
     195      444        1     0.00000    5.63396    9.45451    5.63396
     196      444        2     0.00000    6.45800   10.04090    6.45800
     197      444        2     0.00000    6.45800   11.52624    6.45800
     198      444        2     0.00000    5.60813   12.22112    5.60813
     199      444        3     0.00000    5.03982   11.75873    5.03982
     200      444        1     0.00000   20.19804    9.45451   20.19804
     201      444        2     0.00000   19.37400   10.04090   19.37400
     202      444        2     0.00000   19.37400   11.52624   19.37400
     203      444        2     0.00000   20.22387   12.22112   20.22387
     204      444        3     0.00000   20.79218   11.75873   20.79218
     205      444        1     0.00000    5.63396   20.19804    9.45451
     206      444        2     0.00000    6.45800   19.37400   10.04090
     207      444        2     0.00000    6.45800   19.37400   11.52624
     208      444        2     0.00000    5.60813   20.22387   12.22112
     209      444        3     0.00000    5.03982   20.79218   11.75873
     210      444        1     0.00000   20.19804    5.63396    9.45451
     211      444        2     0.00000   19.37400    6.45800   10.04090
     212      444        2     0.00000   19.37400    6.45800   11.52624
     213      444        2     0.00000   20.22387    5.60813   12.22112
     214      444        3     0.00000   20.79218    5.03982   11.75873
     215      444        1     0.00000    5.63396    5.63396   16.37749
     216      444        2     0.00000    6.45800    6.45800   15.79110
     217      444        2     0.00000    6.45800    6.45800   14.30576
     218      444        2     0.00000    5.60813    5.60813   13.61088
     219      444        3     0.00000    5.03982    5.03982   14.07327
     220      444        1     0.00000   20.19804   20.19804   16.37749
     221      444        2     0.00000   19.37400   19.37400   15.79110
     222      444        2     0.00000   19.37400   19.37400   14.30576
     223      444        2     0.00000   20.22387   20.22387   13.61088
     224      444        3     0.00000   20.79218   20.79218   14.07327
     225      444        4     0.00000    7.57911   18.25289    7.57911
     226      444        1     0.00000    7.28204   16.37749    7.28204
     227      444        2     0.00000    6.45800   15.79110    6.45800
     228      444        2     0.00000    6.45800   14.30576    6.45800
     229      444        2     0.00000    7.30787   13.61088    7.30787
     230      444        3     0.00000    7.87618   14.07327    7.87618
     231      444        4     0.00000   18.25289   18.25289   18.25289
     232      444        1     0.00000   18.54996   16.37749   18.54996
     233      444        2     0.00000   19.37400   15.79110   19.37400
     234      444        2     0.00000   19.37400   14.30576   19.37400
     235      444        2     0.00000   18.52413   13.61088   18.52413
     236      444        3     0.00000   17.95582   14.07327   17.95582
     237      444        4     0.00000   18.25289    7.57911    7.57911
     238      444        1     0.00000   18.54996    9.45451    7.28204
     239      444        2     0.00000   19.37400   10.04090    6.45800
     240      444        2     0.00000   19.37400   11.52624    6.45800
     241      444        2     0.00000   18.52413   12.22112    7.30787
     242      444        3     0.00000   17.95582   11.75873    7.87618
     243      444        4     0.00000    7.57911    7.57911   18.25289
     244      444        1     0.00000    7.28204    9.45451   18.54996
     245      444        2     0.00000    6.45800   10.04090   19.37400
     246      444        2     0.00000    6.45800   11.52624   19.37400
     247      444        2     0.00000    7.30787   12.22112   18.52413
     248      444        3     0.00000    7.87618   11.75873   17.95582
     249      444        1     0.00000   18.54996    7.28204    9.45451
     250      444        2     0.00000   18.52413    7.30787   12.22112
     251      444        3     0.00000   17.95582    7.87618   11.75873
     252      444        1     0.00000    7.28204   18.54996    9.45451
     253      444        2     0.00000    7.30787   18.52413   12.22112
     254      444        3     0.00000    7.87618   17.95582   11.75873
     255      444        1     0.00000    7.28204    7.28204   16.37749
     256      444        2     0.00000    7.30787    7.30787   13.61088
     257      444        3     0.00000    7.87618    7.87618   14.07327
     258      444        1     0.00000   18.54996   18.54996   16.37749
     259      444        2     0.00000   18.52413   18.52413   13.61088
     260      444        3     0.00000   17.95582   17.95582   14.07327
     261      444        1     0.00000   20.19804    9.45451    5.63396
     262      444        2     0.00000   20.22387   12.22112    5.60813
     263      444        3     0.00000   20.79218   11.75873    5.03982
     264      444        1     0.00000    5.63396    9.45451   20.19804
     265      444        2     0.00000    5.60813   12.22112   20.22387
     266      444        3     0.00000    5.03982   11.75873   20.79218
     267      444        1     0.00000   20.19804   16.37749   20.19804
     268      444        2     0.00000   20.22387   13.61088   20.22387
     269      444        3     0.00000   20.79218   14.07327   20.79218
     270      444        1     0.00000    5.63396   16.37749    5.63396
     271      444        2     0.00000    5.60813   13.61088    5.60813
     272      444        3     0.00000    5.03982   14.07327    5.03982
     273      444        1     0.00000   20.19804    5.63396   16.37749
     274      444        2     0.00000   20.22387    5.60813   13.61088
     275      444        3     0.00000   20.79218    5.03982   14.07327
     276      444        1     0.00000    5.63396   20.19804   16.37749
     277      444        2     0.00000    5.60813   20.22387   13.61088
     278      444        3     0.00000    5.03982   20.79218   14.07327
     279      444        1     0.00000   20.19804   20.19804    9.45451
     280      444        2     0.00000   20.22387   20.22387   12.22112
     281      444        3     0.00000   20.79218   20.79218   11.75873
     282      444        1     0.00000    5.63396    5.63396    9.45451
     283      444        2     0.00000    5.60813    5.60813   12.22112
     284      444        3     0.00000    5.03982    5.03982   11.75873
     285      444        1     0.00000   18.54996    9.45451   18.54996
     286      444        2     0.00000   18.52413   12.22112   18.52413
     287      444        3     0.00000   17.95582   11.75873   17.95582
     288      444        1     0.00000    7.28204    9.45451    7.28204
     289      444        2     0.00000    7.30787   12.22112    7.30787
     290      444        3     0.00000    7.87618   11.75873    7.87618
     291      444        1     0.00000    7.28204   16.37749   18.54996
     292      444        2     0.00000    7.30787   13.61088   18.52413
     293      444        3     0.00000    7.87618   14.07327   17.95582
     294      444        1     0.00000   18.54996   16.37749    7.28204
     295      444        2     0.00000   18.52413   13.61088    7.30787
     296      444        3     0.00000   17.95582   14.07327    7.87618
     297      444        1     0.00000   16.37749    7.28204   18.54996
     298      444        2     0.00000   15.79110    6.45800   19.37400
     299      444        2     0.00000   14.30576    6.45800   19.37400
     300      444        2     0.00000   13.61088    7.30787   18.52413
     301      444        3     0.00000   14.07327    7.87618   17.95582
     302      444        1     0.00000   16.37749   18.54996    7.28204
     303      444        2     0.00000   15.79110   19.37400    6.45800
     304      444        2     0.00000   14.30576   19.37400    6.45800
     305      444        2     0.00000   13.61088   18.52413    7.30787
     306      444        3     0.00000   14.07327   17.95582    7.87618
     307      444        1     0.00000    9.45451   18.54996   18.54996
     308      444        2     0.00000   10.04090   19.37400   19.37400
     309      444        2     0.00000   11.52624   19.37400   19.37400
     310      444        2     0.00000   12.22112   18.52413   18.52413
     311      444        3     0.00000   11.75873   17.95582   17.95582
     312      444        1     0.00000    9.45451    7.28204    7.28204
     313      444        2     0.00000   10.04090    6.45800    6.45800
     314      444        2     0.00000   11.52624    6.45800    6.45800
     315      444        2     0.00000   12.22112    7.30787    7.30787
     316      444        3     0.00000   11.75873    7.87618    7.87618
     317      444        1     0.00000   16.37749    5.63396    5.63396
     318      444        2     0.00000   15.79110    6.45800    6.45800
     319      444        2     0.00000   14.30576    6.45800    6.45800
     320      444        2     0.00000   13.61088    5.60813    5.60813
     321      444        3     0.00000   14.07327    5.03982    5.03982
     322      444        1     0.00000   16.37749   20.19804   20.19804
     323      444        2     0.00000   15.79110   19.37400   19.37400
     324      444        2     0.00000   14.30576   19.37400   19.37400
     325      444        2     0.00000   13.61088   20.22387   20.22387
     326      444        3     0.00000   14.07327   20.79218   20.79218
     327      444        1     0.00000    9.45451    5.63396   20.19804
     328      444        2     0.00000   10.04090    6.45800   19.37400
     329      444        2     0.00000   11.52624    6.45800   19.37400
     330      444        2     0.00000   12.22112    5.60813   20.22387
     331      444        3     0.00000   11.75873    5.03982   20.79218
     332      444        1     0.00000    9.45451   20.19804    5.63396
     333      444        2     0.00000   10.04090   19.37400    6.45800
     334      444        2     0.00000   11.52624   19.37400    6.45800
     335      444        2     0.00000   12.22112   20.22387    5.60813
     336      444        3     0.00000   11.75873   20.79218    5.03982
     337      444        1     0.00000    9.45451   18.54996    7.28204
     338      444        2     0.00000   12.22112   18.52413    7.30787
     339      444        3     0.00000   11.75873   17.95582    7.87618
     340      444        1     0.00000    9.45451    7.28204   18.54996
     341      444        2     0.00000   12.22112    7.30787   18.52413
     342      444        3     0.00000   11.75873    7.87618   17.95582
     343      444        1     0.00000   16.37749    7.28204    7.28204
     344      444        2     0.00000   13.61088    7.30787    7.30787
     345      444        3     0.00000   14.07327    7.87618    7.87618
     346      444        1     0.00000   16.37749   18.54996   18.54996
     347      444        2     0.00000   13.61088   18.52413   18.52413
     348      444        3     0.00000   14.07327   17.95582   17.95582
     349      444        1     0.00000    9.45451   20.19804   20.19804
     350      444        2     0.00000   12.22112   20.22387   20.22387
     351      444        3     0.00000   11.75873   20.79218   20.79218
     352      444        1     0.00000    9.45451    5.63396    5.63396
     353      444        2     0.00000   12.22112    5.60813    5.60813
     354      444        3     0.00000   11.75873    5.03982    5.03982
     355      444        1     0.00000   16.37749   20.19804    5.63396
     356      444        2     0.00000   13.61088   20.22387    5.60813
     357      444        3     0.00000   14.07327   20.79218    5.03982
     358      444        1     0.00000   16.37749    5.63396   20.19804
     359      444        2     0.00000   13.61088    5.60813   20.22387
     360      444        3     0.00000   14.07327    5.03982   20.79218
     361      444        1     0.00000   18.54996    5.63396   22.37051
     362      444        1     0.00000    7.28204   20.19804   22.37051
     363      444        1     0.00000   22.37051   18.54996    5.63396
     364      444        1     0.00000   22.37051    7.28204   20.19804
     365      444        1     0.00000    5.63396   22.37051   18.54996
     366      444        1     0.00000   20.19804   22.37051    7.28204
     367      444        1     0.00000    5.63396    7.28204   22.37051
     368      444        1     0.00000   20.19804   18.54996   22.37051
     369      444        1     0.00000   18.54996   20.19804   22.37051
     370      444        1     0.00000    7.28204    5.63396   22.37051
     371      444        1     0.00000   20.19804    7.28204   22.37051
     372      444        1     0.00000    5.63396   18.54996   22.37051
     373      444        1     0.00000   18.54996   22.37051    5.63396
     374      444        1     0.00000    7.28204   22.37051   20.19804
     375      444        1     0.00000   22.37051   20.19804    7.28204
     376      444        1     0.00000   22.37051    5.63396   18.54996
     377      444        2     0.00000   19.37400    6.45800   22.95690
     378      444        2     0.00000   19.37400    6.45800   24.44224
     379      444        2     0.00000   18.52413    5.60813   25.13712
     380      444        3     0.00000   17.95582    5.03982   24.67473
     381      444        2     0.00000    6.45800   19.37400   22.95690
     382      444        2     0.00000    6.45800   19.37400   24.44224